                               Psi4 1.4rc1

  ==> Input File <==

--------------------------------------------------------------------------
# Any line starting with the # character is a comment line

memory 120 gb

set parallel true
psi4.set_num_threads(12)

molecule c6h6 {
 C  2.6606200000 -0.0000000000  0.0000000000
 C -2.6606200000  0.0000000000  0.0000000000
 C -1.3303100000  2.3041700000  0.0000000000
 C  1.3303100000  2.3041700000  0.0000000000
 C -1.3303100000 -2.3041700000  0.0000000000
 C  1.3303100000 -2.3041700000  0.0000000000
 H  4.7284700000 -0.0000000000  0.0000000000
 H -4.7284700000  0.0000000000  0.0000000000
 H  2.3642200000  4.0949900000  0.0000000000
 H -2.3642200000  4.0949900000  0.0000000000
 H  2.3642200000 -4.0949900000  0.0000000000
 H -2.3642200000 -4.0949900000  0.0000000000
symmetry D2h
units bohr
}

set{ basis aug-cc-pVDZ
roots_per_irrep [3,3,3,3,3,3,3,3]
reference uhf
CC_NUM_THREADS 12
}

energy('eom-ccsd')
--------------------------------------------------------------------------

    Molecular point group: d2h

    Geometry (in Bohr), charge = 0, multiplicity = 1:

       Center              X                  Y                   Z               Mass
    ------------   -----------------  -----------------  -----------------  -----------------
         C            2.660620000000     0.000000000000     0.000000000000    12.000000000000
         C           -2.660620000000    -0.000000000000     0.000000000000    12.000000000000
         C           -1.330310000000     2.304170000000     0.000000000000    12.000000000000
         C            1.330310000000     2.304170000000     0.000000000000    12.000000000000
         C           -1.330310000000    -2.304170000000     0.000000000000    12.000000000000
         C            1.330310000000    -2.304170000000     0.000000000000    12.000000000000
         H            4.728470000000     0.000000000000     0.000000000000     1.007825032230
         H           -4.728470000000    -0.000000000000     0.000000000000     1.007825032230
         H            2.364220000000     4.094990000000     0.000000000000     1.007825032230
         H           -2.364220000000     4.094990000000     0.000000000000     1.007825032230
         H            2.364220000000    -4.094990000000     0.000000000000     1.007825032230
         H           -2.364220000000    -4.094990000000     0.000000000000     1.007825032230

  Charge       = 0
  Multiplicity = 1
  Basis Set: AUG-CC-PVDZ
    Blend: AUG-CC-PVDZ

    Orbital Energies [Eh]
    ---------------------

    Alpha Occupied:

       1Ag   -11.248568     1B3u  -11.248046     1B2u  -11.248046
       2Ag   -11.246907     1B1g  -11.246907     2B3u  -11.246351
       3Ag    -1.144825     2B2u   -1.012232     3B3u   -1.012231
       4Ag    -0.822009     2B1g   -0.822008     5Ag    -0.703521
       4B3u   -0.644018     3B2u   -0.614968     4B2u   -0.585237
       5B3u   -0.585236     1B1u   -0.496563     3B1g   -0.493756
       6Ag    -0.493755     1B3g   -0.334448     1B2g   -0.334447

    Alpha Virtual:

       7Ag     0.035943     5B2u    0.042525     6B3u    0.042525
       8Ag     0.057337     4B1g    0.057337     7B3u    0.076043
       2B1u    0.104937     1Au     0.104938     3B1u    0.123426
       2B3g    0.143513     2B2g    0.143514     6B2u    0.145772
       7B2u    0.148436     8B3u    0.148437     9Ag     0.149640
       5B1g    0.152925    10Ag     0.152925     8B2u    0.167994
       9B3u    0.167995    11Ag     0.168536    10B3u    0.184479
      12Ag     0.190676     6B1g    0.190676     3B2g    0.191945
       4B1u    0.197899     2Au     0.197899     7B1g    0.266258
       9B2u    0.300969    11B3u    0.300970     8B1g    0.312797
      13Ag     0.312797    14Ag     0.324045     5B1u    0.337277
       4B2g    0.341493    15Ag     0.353531     9B1g    0.353533
      12B3u    0.366047    13B3u    0.376312    10B2u    0.376313
      11B2u    0.386933    14B3u    0.407548     3B3g    0.426857
       5B2g    0.426858    12B2u    0.428561    15B3u    0.428562
      10B1g    0.440430    16Ag     0.440430     6B1u    0.503105
       3Au     0.503105    17Ag     0.505841     4B3g    0.561929
       6B2g    0.568853    13B2u    0.569711    16B3u    0.569712
      18Ag     0.582999    11B1g    0.583001    12B1g    0.591196
      19Ag     0.595981     7B1u    0.607384    20Ag     0.614410
      14B2u    0.661696    17B3u    0.661697    18B3u    0.680946
       4Au     0.685527     8B1u    0.685527    15B2u    0.690118
      19B3u    0.690119    13B1g    0.692262    21Ag     0.692262
       7B2g    0.756814     5B3g    0.756814    16B2u    0.762434
      20B3u    0.774003    14B1g    0.774339    22Ag     0.774341
       9B1u    0.840599    15B1g    0.845555    17B2u    0.847964
      21B3u    0.847967    16B1g    0.886562    23Ag     0.886562
       6B3g    0.918740     8B2g    0.918742    10B1u    0.923351
       5Au     0.923352     9B2g    0.955879    24Ag     0.964768
      17B1g    0.964768     7B3g    0.976694    10B2g    0.976694
      22B3u    0.993649    25Ag     1.004727    23B3u    1.053777
       6Au     1.075574    24B3u    1.093028    18B2u    1.093028
       7Au     1.175982    11B1u    1.175984    18B1g    1.187146
      19B2u    1.343101    25B3u    1.343103     8B3g    1.419102
      11B2g    1.479154    20B2u    1.501133    21B2u    1.527296
      26B3u    1.527303    26Ag     1.536331    19B1g    1.536332
      12B1u    1.549154    27B3u    1.586594    27Ag     1.608165
      28B3u    1.630727    22B2u    1.630728    20B1g    1.642081
      28Ag     1.642082    29Ag     1.644831    13B1u    1.701889
       8Au     1.701892     9B3g    1.711594    12B2g    1.711596
      30Ag     1.781698    21B1g    1.781699    23B2u    1.781902
      31Ag     1.832163     9Au     1.888544    14B1u    1.888544
      32Ag     1.894878    22B1g    1.933637    29B3u    1.945697
      24B2u    1.945697    23B1g    1.965020    33Ag     1.965020
      13B2g    1.979210    30B3u    1.987717    31B3u    2.084927
      25B2u    2.084932    15B1u    2.086057    10B3g    2.112372
      14B2g    2.112375    15B2g    2.195486    11B3g    2.195488
      24B1g    2.202203    34Ag     2.202204    26B2u    2.251818
      32B3u    2.251823    27B2u    2.271826    25B1g    2.351965
      10Au     2.357557    16B1u    2.357558    33B3u    2.372891
      26B1g    2.429645    35Ag     2.429650    11Au     2.600624
      16B2g    2.650796    36Ag     2.762131    27B1g    2.762134
      34B3u    2.765943    28B2u    2.765951    37Ag     2.772825
      35B3u    2.943227    36B3u    2.945290    29B2u    2.945291
      30B2u    3.099492    37B3u    3.099506    38Ag     3.101015
      28B1g    3.101016    29B1g    3.351327    30B1g    3.516338
      39Ag     3.516349    38B3u    3.831727    39B3u    4.754730

    Beta Occupied:

       1Ag   -11.248568     1B3u  -11.248046     1B2u  -11.248046
       2Ag   -11.246907     1B1g  -11.246907     2B3u  -11.246351
       3Ag    -1.144825     2B2u   -1.012232     3B3u   -1.012231
       4Ag    -0.822009     2B1g   -0.822008     5Ag    -0.703521
       4B3u   -0.644018     3B2u   -0.614968     4B2u   -0.585237
       5B3u   -0.585236     1B1u   -0.496563     3B1g   -0.493756
       6Ag    -0.493755     1B3g   -0.334448     1B2g   -0.334447

    Beta Virtual:

       7Ag     0.035943     5B2u    0.042525     6B3u    0.042525
       8Ag     0.057337     4B1g    0.057337     7B3u    0.076043
       2B1u    0.104937     1Au     0.104938     3B1u    0.123426
       2B3g    0.143513     2B2g    0.143514     6B2u    0.145772
       7B2u    0.148436     8B3u    0.148437     9Ag     0.149640
       5B1g    0.152925    10Ag     0.152925     8B2u    0.167994
       9B3u    0.167995    11Ag     0.168536    10B3u    0.184479
      12Ag     0.190676     6B1g    0.190676     3B2g    0.191945
       4B1u    0.197899     2Au     0.197899     7B1g    0.266258
       9B2u    0.300969    11B3u    0.300970     8B1g    0.312797
      13Ag     0.312797    14Ag     0.324045     5B1u    0.337277
       4B2g    0.341493    15Ag     0.353531     9B1g    0.353533
      12B3u    0.366047    13B3u    0.376312    10B2u    0.376313
      11B2u    0.386933    14B3u    0.407548     3B3g    0.426857
       5B2g    0.426858    12B2u    0.428561    15B3u    0.428562
      10B1g    0.440430    16Ag     0.440430     6B1u    0.503105
       3Au     0.503105    17Ag     0.505841     4B3g    0.561929
       6B2g    0.568853    13B2u    0.569711    16B3u    0.569712
      18Ag     0.582999    11B1g    0.583001    12B1g    0.591196
      19Ag     0.595981     7B1u    0.607384    20Ag     0.614410
      14B2u    0.661696    17B3u    0.661697    18B3u    0.680946
       4Au     0.685527     8B1u    0.685527    15B2u    0.690118
      19B3u    0.690119    13B1g    0.692262    21Ag     0.692262
       7B2g    0.756814     5B3g    0.756814    16B2u    0.762434
      20B3u    0.774003    14B1g    0.774339    22Ag     0.774341
       9B1u    0.840599    15B1g    0.845555    17B2u    0.847964
      21B3u    0.847967    16B1g    0.886562    23Ag     0.886562
       6B3g    0.918740     8B2g    0.918742    10B1u    0.923351
       5Au     0.923352     9B2g    0.955879    24Ag     0.964768
      17B1g    0.964768     7B3g    0.976694    10B2g    0.976694
      22B3u    0.993649    25Ag     1.004727    23B3u    1.053777
       6Au     1.075574    24B3u    1.093028    18B2u    1.093028
       7Au     1.175982    11B1u    1.175984    18B1g    1.187146
      19B2u    1.343101    25B3u    1.343103     8B3g    1.419102
      11B2g    1.479154    20B2u    1.501133    21B2u    1.527296
      26B3u    1.527303    26Ag     1.536331    19B1g    1.536332
      12B1u    1.549154    27B3u    1.586594    27Ag     1.608165
      28B3u    1.630727    22B2u    1.630728    20B1g    1.642081
      28Ag     1.642082    29Ag     1.644831    13B1u    1.701889
       8Au     1.701892     9B3g    1.711594    12B2g    1.711596
      30Ag     1.781698    21B1g    1.781699    23B2u    1.781902
      31Ag     1.832163     9Au     1.888544    14B1u    1.888544
      32Ag     1.894878    22B1g    1.933637    29B3u    1.945697
      24B2u    1.945697    23B1g    1.965020    33Ag     1.965020
      13B2g    1.979210    30B3u    1.987717    31B3u    2.084927
      25B2u    2.084932    15B1u    2.086057    10B3g    2.112372
      14B2g    2.112375    15B2g    2.195486    11B3g    2.195488
      24B1g    2.202203    34Ag     2.202204    26B2u    2.251818
      32B3u    2.251823    27B2u    2.271826    25B1g    2.351965
      10Au     2.357557    16B1u    2.357558    33B3u    2.372891
      26B1g    2.429645    35Ag     2.429650    11Au     2.600624
      16B2g    2.650796    36Ag     2.762131    27B1g    2.762134
      34B3u    2.765943    28B2u    2.765951    37Ag     2.772825
      35B3u    2.943227    36B3u    2.945290    29B2u    2.945291
      30B2u    3.099492    37B3u    3.099506    38Ag     3.101015
      28B1g    3.101016    29B1g    3.351327    30B1g    3.516338
      39Ag     3.516349    38B3u    3.831727    39B3u    4.754730

    Final Occupation by Irrep:
             Ag   B1g   B2g   B3g    Au   B1u   B2u   B3u
    DOCC [     6,    3,    1,    1,    0,    1,    4,    5 ]
    SOCC [     0,    0,    0,    0,    0,    0,    0,    0 ]

  @UHF Final Energy:  -230.72556104463035

   => Energetics <=

    Nuclear Repulsion Energy =            201.5958396276171527
    One-Electron Energy =                -709.4746409790930102
    Two-Electron Energy =                 277.1532403068455324
    Total Energy =                       -230.7255610446303535

  UHF NO Occupations:
  HONO-2 :    5B3u 2.0000000
  HONO-1 :    4B2u 2.0000000
  HONO-0 :    6 Ag 2.0000000
  LUNO+0 :    6B3u 0.0000000
  LUNO+1 :    7B3u 0.0000000
  LUNO+2 :    5B2u 0.0000000
  LUNO+3 :    8B3u 0.0000000

Computation Completed

Properties will be evaluated at   0.000000,   0.000000,   0.000000 [a0]

Properties computed using the SCF density matrix

  Nuclear Dipole Moment: [e a0]
     X:     0.0000      Y:     0.0000      Z:     0.0000

  Electronic Dipole Moment: [e a0]
     X:     0.0000      Y:     0.0000      Z:     0.0000

  Dipole Moment: [e a0]
     X:     0.0000      Y:     0.0000      Z:     0.0000     Total:     0.0000

  Dipole Moment: [D]
     X:     0.0000      Y:     0.0000      Z:     0.0000     Total:     0.0000

*** tstop() called on compute-0-18 at Thu Jun 24 09:49:31 2021
Module time:
	user time   =      81.01 seconds =       1.35 minutes
	system time =       4.78 seconds =       0.08 minutes
	total time  =         17 seconds =       0.28 minutes
Total time:
	user time   =      81.01 seconds =       1.35 minutes
	system time =       4.78 seconds =       0.08 minutes
	total time  =         17 seconds =       0.28 minutes
 MINTS: Wrapper to libmints.
   by Justin Turney

   Calculation information:
      Number of threads:                12
      Number of atoms:                  12
      Number of AO shells:              84
      Number of SO shells:              28
      Number of primitives:            192
      Number of atomic orbitals:       204
      Number of basis functions:       192

      Number of irreps:                  8
      Integral cutoff                 1.00e-12
      Number of functions per irrep: [  39   30   16   11   11   16   30   39 ]

 OEINTS: Overlap, kinetic, potential, dipole, and quadrupole integrals
         stored in file 35.

      Computing two-electron integrals...done
      Computed 22303736 non-zero two-electron integrals.
        Stored in file 33.

*** tstart() called on compute-0-18
*** at Thu Jun 24 09:49:46 2021

	Wfn Parameters:
	--------------------
	Wavefunction         = CCSD
	Number of irreps     = 8
	Number of MOs        = 192
	Number of active MOs = 192
	AO-Basis             = NONE
	Semicanonical        = false
	Reference            = UHF
	Print Level          = 1

	IRREP	# MOs	# FZDC	# DOCC	# SOCC	# VIRT	# FZVR
	-----	-----	------	------	------	------	------
	 Ag	   39	    0	    6	    0	    33	    0
	 B1g	   30	    0	    3	    0	    27	    0
	 B2g	   16	    0	    1	    0	    15	    0
	 B3g	   11	    0	    1	    0	    10	    0
	 Au	   11	    0	    0	    0	    11	    0
	 B1u	   16	    0	    1	    0	    15	    0
	 B2u	   30	    0	    4	    0	    26	    0
	 B3u	   39	    0	    5	    0	    34	    0
	Transforming integrals...
	IWL integrals will be deleted.
	(OO|OO)...
	Presorting SO-basis two-electron integrals.
	Sorting File: SO Ints (nn|nn) nbuckets = 1
	Constructing frozen core operators
	Starting AA/AB first half-transformation.
	Sorting AA/AB half-transformed integrals.
	Starting BB first half-transformation.
	Sorting BB half-transformed integrals.
	First half integral transformation complete.
	Starting AA second half-transformation.
	Starting AB second half-transformation.
	Starting BB second half-transformation.
	Two-electron integral transformation complete.
	(OO|OV)...
	Starting AA second half-transformation.
	Starting AB second half-transformation.
	Starting BB second half-transformation.
	Two-electron integral transformation complete.
	(OO|VV)...
	Starting AA second half-transformation.
	Starting AB second half-transformation.
	Starting BB second half-transformation.
	Two-electron integral transformation complete.
	(OV|OO)...
	Starting AA/AB first half-transformation.
	Sorting AA/AB half-transformed integrals.
	Starting BB first half-transformation.
	Sorting BB half-transformed integrals.
	First half integral transformation complete.
	Starting AA second half-transformation.
	Starting AB second half-transformation.
	Starting BB second half-transformation.
	Two-electron integral transformation complete.
	(OV|OV)...
	Starting AA second half-transformation.
	Starting AB second half-transformation.
	Starting BB second half-transformation.
	Two-electron integral transformation complete.
	(OV|VV)...
	Starting AA second half-transformation.
	Starting AB second half-transformation.
	Starting BB second half-transformation.
	Two-electron integral transformation complete.
	(VV|OO)...
	Starting AA/AB first half-transformation.
	Sorting AA/AB half-transformed integrals.
	Starting BB first half-transformation.
	Sorting BB half-transformed integrals.
	First half integral transformation complete.
	Starting AA second half-transformation.
	Starting AB second half-transformation.
	Starting BB second half-transformation.
	Two-electron integral transformation complete.
	(VV|OV)...
	Starting AA second half-transformation.
	Starting AB second half-transformation.
	Starting BB second half-transformation.
	Two-electron integral transformation complete.
	(VV|VV)...
	Starting AA second half-transformation.
	Starting AB second half-transformation.
	Starting BB second half-transformation.
	Two-electron integral transformation complete.
	Frozen core energy     =      0.00000000000000

	Size of irrep 0 of <AB|CD> integrals:      4.306 (MW) /     34.445 (MB)
	Size of irrep 1 of <AB|CD> integrals:      4.368 (MW) /     34.945 (MB)
	Size of irrep 2 of <AB|CD> integrals:      2.437 (MW) /     19.494 (MB)
	Size of irrep 3 of <AB|CD> integrals:      2.247 (MW) /     17.976 (MB)
	Size of irrep 4 of <AB|CD> integrals:      2.244 (MW) /     17.952 (MB)
	Size of irrep 5 of <AB|CD> integrals:      2.440 (MW) /     19.519 (MB)
	Size of irrep 6 of <AB|CD> integrals:      4.372 (MW) /     34.978 (MB)
	Size of irrep 7 of <AB|CD> integrals:      4.661 (MW) /     37.290 (MB)
	Total:                                    27.075 (MW) /    216.599 (MB)

	Size of irrep 0 of <ab|cd> integrals:      4.306 (MW) /     34.445 (MB)
	Size of irrep 1 of <ab|cd> integrals:      4.368 (MW) /     34.945 (MB)
	Size of irrep 2 of <ab|cd> integrals:      2.437 (MW) /     19.494 (MB)
	Size of irrep 3 of <ab|cd> integrals:      2.247 (MW) /     17.976 (MB)
	Size of irrep 4 of <ab|cd> integrals:      2.244 (MW) /     17.952 (MB)
	Size of irrep 5 of <ab|cd> integrals:      2.440 (MW) /     19.519 (MB)
	Size of irrep 6 of <ab|cd> integrals:      4.372 (MW) /     34.978 (MB)
	Size of irrep 7 of <ab|cd> integrals:      4.661 (MW) /     37.290 (MB)
	Total:                                    27.075 (MW) /    216.599 (MB)

	Size of irrep 0 of <Ab|Cd> integrals:     18.671 (MW) /    149.368 (MB)
	Size of irrep 1 of <Ab|Cd> integrals:     17.472 (MW) /    139.779 (MB)
	Size of irrep 2 of <Ab|Cd> integrals:      9.747 (MW) /     77.975 (MB)
	Size of irrep 3 of <Ab|Cd> integrals:      8.988 (MW) /     71.904 (MB)
	Size of irrep 4 of <Ab|Cd> integrals:      8.976 (MW) /     71.808 (MB)
	Size of irrep 5 of <Ab|Cd> integrals:      9.759 (MW) /     78.075 (MB)
	Size of irrep 6 of <Ab|Cd> integrals:     17.489 (MW) /    139.913 (MB)
	Size of irrep 7 of <Ab|Cd> integrals:     18.645 (MW) /    149.161 (MB)
	Total:                                   109.748 (MW) /    877.984 (MB)

	Size of irrep 0 of <IA|BC> integrals:      2.562 (MW) /     20.499 (MB)
	Size of irrep 1 of <IA|BC> integrals:      2.353 (MW) /     18.827 (MB)
	Size of irrep 2 of <IA|BC> integrals:      1.040 (MW) /      8.317 (MB)
	Size of irrep 3 of <IA|BC> integrals:      0.917 (MW) /      7.339 (MB)
	Size of irrep 4 of <IA|BC> integrals:      0.923 (MW) /      7.382 (MB)
	Size of irrep 5 of <IA|BC> integrals:      1.034 (MW) /      8.272 (MB)
	Size of irrep 6 of <IA|BC> integrals:      2.346 (MW) /     18.769 (MB)
	Size of irrep 7 of <IA|BC> integrals:      2.574 (MW) /     20.588 (MB)
	Total:                                    13.749 (MW) /    109.993 (MB)

	Size of irrep 0 of <ia|bc> integrals:      2.562 (MW) /     20.499 (MB)
	Size of irrep 1 of <ia|bc> integrals:      2.353 (MW) /     18.827 (MB)
	Size of irrep 2 of <ia|bc> integrals:      1.040 (MW) /      8.317 (MB)
	Size of irrep 3 of <ia|bc> integrals:      0.917 (MW) /      7.339 (MB)
	Size of irrep 4 of <ia|bc> integrals:      0.923 (MW) /      7.382 (MB)
	Size of irrep 5 of <ia|bc> integrals:      1.034 (MW) /      8.272 (MB)
	Size of irrep 6 of <ia|bc> integrals:      2.346 (MW) /     18.769 (MB)
	Size of irrep 7 of <ia|bc> integrals:      2.574 (MW) /     20.588 (MB)
	Total:                                    13.749 (MW) /    109.993 (MB)

	Size of irrep 0 of <Ia|Bc> integrals:      2.562 (MW) /     20.499 (MB)
	Size of irrep 1 of <Ia|Bc> integrals:      2.353 (MW) /     18.827 (MB)
	Size of irrep 2 of <Ia|Bc> integrals:      1.040 (MW) /      8.317 (MB)
	Size of irrep 3 of <Ia|Bc> integrals:      0.917 (MW) /      7.339 (MB)
	Size of irrep 4 of <Ia|Bc> integrals:      0.923 (MW) /      7.382 (MB)
	Size of irrep 5 of <Ia|Bc> integrals:      1.034 (MW) /      8.272 (MB)
	Size of irrep 6 of <Ia|Bc> integrals:      2.346 (MW) /     18.769 (MB)
	Size of irrep 7 of <Ia|Bc> integrals:      2.574 (MW) /     20.588 (MB)
	Total:                                    13.749 (MW) /    109.993 (MB)

	Size of irrep 0 of <iA|bC> integrals:      2.562 (MW) /     20.499 (MB)
	Size of irrep 1 of <iA|bC> integrals:      2.353 (MW) /     18.827 (MB)
	Size of irrep 2 of <iA|bC> integrals:      1.040 (MW) /      8.317 (MB)
	Size of irrep 3 of <iA|bC> integrals:      0.917 (MW) /      7.339 (MB)
	Size of irrep 4 of <iA|bC> integrals:      0.923 (MW) /      7.382 (MB)
	Size of irrep 5 of <iA|bC> integrals:      1.034 (MW) /      8.272 (MB)
	Size of irrep 6 of <iA|bC> integrals:      2.346 (MW) /     18.769 (MB)
	Size of irrep 7 of <iA|bC> integrals:      2.574 (MW) /     20.588 (MB)
	Total:                                    13.749 (MW) /    109.993 (MB)

	Size of irrep 0 of tIjAb amplitudes:       0.385 (MW) /      3.077 (MB)
	Size of irrep 1 of tIjAb amplitudes:       0.326 (MW) /      2.608 (MB)
	Size of irrep 2 of tIjAb amplitudes:       0.087 (MW) /      0.699 (MB)
	Size of irrep 3 of tIjAb amplitudes:       0.078 (MW) /      0.624 (MB)
	Size of irrep 4 of tIjAb amplitudes:       0.072 (MW) /      0.575 (MB)
	Size of irrep 5 of tIjAb amplitudes:       0.094 (MW) /      0.750 (MB)
	Size of irrep 6 of tIjAb amplitudes:       0.335 (MW) /      2.676 (MB)
	Size of irrep 7 of tIjAb amplitudes:       0.371 (MW) /      2.971 (MB)
	Total:                                     1.748 (MW) /     13.980 (MB)

	Nuclear Rep. energy          =    201.59583962761715
	SCF energy                   =   -230.72556104463035
	One-electron energy          =   -709.47464146595814
	Two-electron (AA) energy     =     60.99662478075116
	Two-electron (BB) energy     =     60.99662478075116
	Two-electron (AB) energy     =    155.15999123221079
	Two-electron energy          =    277.15324079371311
	Reference energy             =   -230.72556104462782

      * MP2 total energy                      = -231.557184912554419
      * CCSD total energy                     = -231.592016161069978
*** Psi4 exiting successfully. Buy a developer a beer!
